
Host: gr008.hpc.nyu.edu

Timers On : Thu Nov  7 16:26:03 2024
Timers Off: Thu Nov  7 16:26:04 2024

Wall Time:        0.35 seconds

                                                       Time (seconds)
Module                                       User      System        Wall        Calls

--------------------------------------------------------------------------------------

**************************************************************************************
